LAMMPS data file generated get_lammps_data.py [VK]

1728 atoms
2 atom types

0.0 71.592 xlo xhi
0.0 54.96 ylo yhi
0.0 20.0 zlo zhi
0.0 0.0 0.0 xy xz yz

Masses

1 1.008
2 15.999

Atoms

    1     1 0.158  0.454  3.144
    2     1 1.326  54.693  2.441
    3     1 2.825  2.744  1.856
    4     1 1.657  2.0229999999999997  2.559
    5     2 0.865  0.5959999999999999  2.517
    6     2 2.118  2.886  2.483
    7     1 0.158  5.033999999999999  3.144
    8     1 1.326  4.313  2.441
    9     1 2.825  7.323999999999999  1.856
   10     1 1.657  6.602999999999999  2.559
   11     2 0.865  5.176  2.517
   12     2 2.118  7.466  2.483
   13     1 0.158  9.613999999999999  3.144
   14     1 1.326  8.893  2.441
   15     1 2.825  11.904  1.856
   16     1 1.657  11.183  2.559
   17     2 0.865  9.756  2.517
   18     2 2.118  12.046  2.483
   19     1 0.158  14.194  3.144
   20     1 1.326  13.473  2.441
   21     1 2.825  16.484  1.856
   22     1 1.657  15.763  2.559
   23     2 0.865  14.336  2.517
   24     2 2.118  16.626  2.483
   25     1 0.158  18.774  3.144
   26     1 1.326  18.052999999999997  2.441
   27     1 2.825  21.063999999999997  1.856
   28     1 1.657  20.343  2.559
   29     2 0.865  18.916  2.517
   30     2 2.118  21.205999999999996  2.483
   31     1 0.158  23.354  3.144
   32     1 1.326  22.632999999999996  2.441
   33     1 2.825  25.643999999999995  1.856
   34     1 1.657  24.922999999999995  2.559
   35     2 0.865  23.496  2.517
   36     2 2.118  25.785999999999998  2.483
   37     1 0.158  27.934  3.144
   38     1 1.326  27.213  2.441
   39     1 2.825  30.224  1.856
   40     1 1.657  29.502999999999997  2.559
   41     2 0.865  28.076  2.517
   42     2 2.118  30.366  2.483
   43     1 0.158  32.514  3.144
   44     1 1.326  31.792999999999996  2.441
   45     1 2.825  34.804  1.856
   46     1 1.657  34.08299999999999  2.559
   47     2 0.865  32.656  2.517
   48     2 2.118  34.946  2.483
   49     1 0.158  37.094  3.144
   50     1 1.326  36.373  2.441
   51     1 2.825  39.38399999999999  1.856
   52     1 1.657  38.663  2.559
   53     2 0.865  37.23599999999999  2.517
   54     2 2.118  39.526  2.483
   55     1 0.158  41.67399999999999  3.144
   56     1 1.326  40.953  2.441
   57     1 2.825  43.96399999999999  1.856
   58     1 1.657  43.242999999999995  2.559
   59     2 0.865  41.816  2.517
   60     2 2.118  44.106  2.483
   61     1 0.158  46.254  3.144
   62     1 1.326  45.532999999999994  2.441
   63     1 2.825  48.544  1.856
   64     1 1.657  47.823  2.559
   65     2 0.865  46.395999999999994  2.517
   66     2 2.118  48.68599999999999  2.483
   67     1 0.158  50.833999999999996  3.144
   68     1 1.326  50.113  2.441
   69     1 2.825  53.123999999999995  1.856
   70     1 1.657  52.403  2.559
   71     2 0.865  50.97599999999999  2.517
   72     2 2.118  53.266  2.483
   73     1 3.141  0.454  3.144
   74     1 4.309  54.693  2.441
   75     1 5.808  2.744  1.856
   76     1 4.64  2.0229999999999997  2.559
   77     2 3.8480000000000003  0.5959999999999999  2.517
   78     2 5.101  2.886  2.483
   79     1 3.141  5.033999999999999  3.144
   80     1 4.309  4.313  2.441
   81     1 5.808  7.323999999999999  1.856
   82     1 4.64  6.602999999999999  2.559
   83     2 3.8480000000000003  5.176  2.517
   84     2 5.101  7.466  2.483
   85     1 3.141  9.613999999999999  3.144
   86     1 4.309  8.893  2.441
   87     1 5.808  11.904  1.856
   88     1 4.64  11.183  2.559
   89     2 3.8480000000000003  9.756  2.517
   90     2 5.101  12.046  2.483
   91     1 3.141  14.194  3.144
   92     1 4.309  13.473  2.441
   93     1 5.808  16.484  1.856
   94     1 4.64  15.763  2.559
   95     2 3.8480000000000003  14.336  2.517
   96     2 5.101  16.626  2.483
   97     1 3.141  18.774  3.144
   98     1 4.309  18.052999999999997  2.441
   99     1 5.808  21.063999999999997  1.856
  100     1 4.64  20.343  2.559
  101     2 3.8480000000000003  18.916  2.517
  102     2 5.101  21.205999999999996  2.483
  103     1 3.141  23.354  3.144
  104     1 4.309  22.632999999999996  2.441
  105     1 5.808  25.643999999999995  1.856
  106     1 4.64  24.922999999999995  2.559
  107     2 3.8480000000000003  23.496  2.517
  108     2 5.101  25.785999999999998  2.483
  109     1 3.141  27.934  3.144
  110     1 4.309  27.213  2.441
  111     1 5.808  30.224  1.856
  112     1 4.64  29.502999999999997  2.559
  113     2 3.8480000000000003  28.076  2.517
  114     2 5.101  30.366  2.483
  115     1 3.141  32.514  3.144
  116     1 4.309  31.792999999999996  2.441
  117     1 5.808  34.804  1.856
  118     1 4.64  34.08299999999999  2.559
  119     2 3.8480000000000003  32.656  2.517
  120     2 5.101  34.946  2.483
  121     1 3.141  37.094  3.144
  122     1 4.309  36.373  2.441
  123     1 5.808  39.38399999999999  1.856
  124     1 4.64  38.663  2.559
  125     2 3.8480000000000003  37.23599999999999  2.517
  126     2 5.101  39.526  2.483
  127     1 3.141  41.67399999999999  3.144
  128     1 4.309  40.953  2.441
  129     1 5.808  43.96399999999999  1.856
  130     1 4.64  43.242999999999995  2.559
  131     2 3.8480000000000003  41.816  2.517
  132     2 5.101  44.106  2.483
  133     1 3.141  46.254  3.144
  134     1 4.309  45.532999999999994  2.441
  135     1 5.808  48.544  1.856
  136     1 4.64  47.823  2.559
  137     2 3.8480000000000003  46.395999999999994  2.517
  138     2 5.101  48.68599999999999  2.483
  139     1 3.141  50.833999999999996  3.144
  140     1 4.309  50.113  2.441
  141     1 5.808  53.123999999999995  1.856
  142     1 4.64  52.403  2.559
  143     2 3.8480000000000003  50.97599999999999  2.517
  144     2 5.101  53.266  2.483
  145     1 6.1240000000000006  0.454  3.144
  146     1 7.292  54.693  2.441
  147     1 8.791  2.744  1.856
  148     1 7.623  2.0229999999999997  2.559
  149     2 6.831  0.5959999999999999  2.517
  150     2 8.084  2.886  2.483
  151     1 6.1240000000000006  5.033999999999999  3.144
  152     1 7.292  4.313  2.441
  153     1 8.791  7.323999999999999  1.856
  154     1 7.623  6.602999999999999  2.559
  155     2 6.831  5.176  2.517
  156     2 8.084  7.466  2.483
  157     1 6.1240000000000006  9.613999999999999  3.144
  158     1 7.292  8.893  2.441
  159     1 8.791  11.904  1.856
  160     1 7.623  11.183  2.559
  161     2 6.831  9.756  2.517
  162     2 8.084  12.046  2.483
  163     1 6.1240000000000006  14.194  3.144
  164     1 7.292  13.473  2.441
  165     1 8.791  16.484  1.856
  166     1 7.623  15.763  2.559
  167     2 6.831  14.336  2.517
  168     2 8.084  16.626  2.483
  169     1 6.1240000000000006  18.774  3.144
  170     1 7.292  18.052999999999997  2.441
  171     1 8.791  21.063999999999997  1.856
  172     1 7.623  20.343  2.559
  173     2 6.831  18.916  2.517
  174     2 8.084  21.205999999999996  2.483
  175     1 6.1240000000000006  23.354  3.144
  176     1 7.292  22.632999999999996  2.441
  177     1 8.791  25.643999999999995  1.856
  178     1 7.623  24.922999999999995  2.559
  179     2 6.831  23.496  2.517
  180     2 8.084  25.785999999999998  2.483
  181     1 6.1240000000000006  27.934  3.144
  182     1 7.292  27.213  2.441
  183     1 8.791  30.224  1.856
  184     1 7.623  29.502999999999997  2.559
  185     2 6.831  28.076  2.517
  186     2 8.084  30.366  2.483
  187     1 6.1240000000000006  32.514  3.144
  188     1 7.292  31.792999999999996  2.441
  189     1 8.791  34.804  1.856
  190     1 7.623  34.08299999999999  2.559
  191     2 6.831  32.656  2.517
  192     2 8.084  34.946  2.483
  193     1 6.1240000000000006  37.094  3.144
  194     1 7.292  36.373  2.441
  195     1 8.791  39.38399999999999  1.856
  196     1 7.623  38.663  2.559
  197     2 6.831  37.23599999999999  2.517
  198     2 8.084  39.526  2.483
  199     1 6.1240000000000006  41.67399999999999  3.144
  200     1 7.292  40.953  2.441
  201     1 8.791  43.96399999999999  1.856
  202     1 7.623  43.242999999999995  2.559
  203     2 6.831  41.816  2.517
  204     2 8.084  44.106  2.483
  205     1 6.1240000000000006  46.254  3.144
  206     1 7.292  45.532999999999994  2.441
  207     1 8.791  48.544  1.856
  208     1 7.623  47.823  2.559
  209     2 6.831  46.395999999999994  2.517
  210     2 8.084  48.68599999999999  2.483
  211     1 6.1240000000000006  50.833999999999996  3.144
  212     1 7.292  50.113  2.441
  213     1 8.791  53.123999999999995  1.856
  214     1 7.623  52.403  2.559
  215     2 6.831  50.97599999999999  2.517
  216     2 8.084  53.266  2.483
  217     1 9.107000000000001  0.454  3.144
  218     1 10.275  54.693  2.441
  219     1 11.774  2.744  1.856
  220     1 10.606  2.0229999999999997  2.559
  221     2 9.814  0.5959999999999999  2.517
  222     2 11.067  2.886  2.483
  223     1 9.107000000000001  5.033999999999999  3.144
  224     1 10.275  4.313  2.441
  225     1 11.774  7.323999999999999  1.856
  226     1 10.606  6.602999999999999  2.559
  227     2 9.814  5.176  2.517
  228     2 11.067  7.466  2.483
  229     1 9.107000000000001  9.613999999999999  3.144
  230     1 10.275  8.893  2.441
  231     1 11.774  11.904  1.856
  232     1 10.606  11.183  2.559
  233     2 9.814  9.756  2.517
  234     2 11.067  12.046  2.483
  235     1 9.107000000000001  14.194  3.144
  236     1 10.275  13.473  2.441
  237     1 11.774  16.484  1.856
  238     1 10.606  15.763  2.559
  239     2 9.814  14.336  2.517
  240     2 11.067  16.626  2.483
  241     1 9.107000000000001  18.774  3.144
  242     1 10.275  18.052999999999997  2.441
  243     1 11.774  21.063999999999997  1.856
  244     1 10.606  20.343  2.559
  245     2 9.814  18.916  2.517
  246     2 11.067  21.205999999999996  2.483
  247     1 9.107000000000001  23.354  3.144
  248     1 10.275  22.632999999999996  2.441
  249     1 11.774  25.643999999999995  1.856
  250     1 10.606  24.922999999999995  2.559
  251     2 9.814  23.496  2.517
  252     2 11.067  25.785999999999998  2.483
  253     1 9.107000000000001  27.934  3.144
  254     1 10.275  27.213  2.441
  255     1 11.774  30.224  1.856
  256     1 10.606  29.502999999999997  2.559
  257     2 9.814  28.076  2.517
  258     2 11.067  30.366  2.483
  259     1 9.107000000000001  32.514  3.144
  260     1 10.275  31.792999999999996  2.441
  261     1 11.774  34.804  1.856
  262     1 10.606  34.08299999999999  2.559
  263     2 9.814  32.656  2.517
  264     2 11.067  34.946  2.483
  265     1 9.107000000000001  37.094  3.144
  266     1 10.275  36.373  2.441
  267     1 11.774  39.38399999999999  1.856
  268     1 10.606  38.663  2.559
  269     2 9.814  37.23599999999999  2.517
  270     2 11.067  39.526  2.483
  271     1 9.107000000000001  41.67399999999999  3.144
  272     1 10.275  40.953  2.441
  273     1 11.774  43.96399999999999  1.856
  274     1 10.606  43.242999999999995  2.559
  275     2 9.814  41.816  2.517
  276     2 11.067  44.106  2.483
  277     1 9.107000000000001  46.254  3.144
  278     1 10.275  45.532999999999994  2.441
  279     1 11.774  48.544  1.856
  280     1 10.606  47.823  2.559
  281     2 9.814  46.395999999999994  2.517
  282     2 11.067  48.68599999999999  2.483
  283     1 9.107000000000001  50.833999999999996  3.144
  284     1 10.275  50.113  2.441
  285     1 11.774  53.123999999999995  1.856
  286     1 10.606  52.403  2.559
  287     2 9.814  50.97599999999999  2.517
  288     2 11.067  53.266  2.483
  289     1 12.09  0.454  3.144
  290     1 13.258000000000001  54.693  2.441
  291     1 14.757  2.744  1.856
  292     1 13.589  2.0229999999999997  2.559
  293     2 12.797  0.5959999999999999  2.517
  294     2 14.05  2.886  2.483
  295     1 12.09  5.033999999999999  3.144
  296     1 13.258000000000001  4.313  2.441
  297     1 14.757  7.323999999999999  1.856
  298     1 13.589  6.602999999999999  2.559
  299     2 12.797  5.176  2.517
  300     2 14.05  7.466  2.483
  301     1 12.09  9.613999999999999  3.144
  302     1 13.258000000000001  8.893  2.441
  303     1 14.757  11.904  1.856
  304     1 13.589  11.183  2.559
  305     2 12.797  9.756  2.517
  306     2 14.05  12.046  2.483
  307     1 12.09  14.194  3.144
  308     1 13.258000000000001  13.473  2.441
  309     1 14.757  16.484  1.856
  310     1 13.589  15.763  2.559
  311     2 12.797  14.336  2.517
  312     2 14.05  16.626  2.483
  313     1 12.09  18.774  3.144
  314     1 13.258000000000001  18.052999999999997  2.441
  315     1 14.757  21.063999999999997  1.856
  316     1 13.589  20.343  2.559
  317     2 12.797  18.916  2.517
  318     2 14.05  21.205999999999996  2.483
  319     1 12.09  23.354  3.144
  320     1 13.258000000000001  22.632999999999996  2.441
  321     1 14.757  25.643999999999995  1.856
  322     1 13.589  24.922999999999995  2.559
  323     2 12.797  23.496  2.517
  324     2 14.05  25.785999999999998  2.483
  325     1 12.09  27.934  3.144
  326     1 13.258000000000001  27.213  2.441
  327     1 14.757  30.224  1.856
  328     1 13.589  29.502999999999997  2.559
  329     2 12.797  28.076  2.517
  330     2 14.05  30.366  2.483
  331     1 12.09  32.514  3.144
  332     1 13.258000000000001  31.792999999999996  2.441
  333     1 14.757  34.804  1.856
  334     1 13.589  34.08299999999999  2.559
  335     2 12.797  32.656  2.517
  336     2 14.05  34.946  2.483
  337     1 12.09  37.094  3.144
  338     1 13.258000000000001  36.373  2.441
  339     1 14.757  39.38399999999999  1.856
  340     1 13.589  38.663  2.559
  341     2 12.797  37.23599999999999  2.517
  342     2 14.05  39.526  2.483
  343     1 12.09  41.67399999999999  3.144
  344     1 13.258000000000001  40.953  2.441
  345     1 14.757  43.96399999999999  1.856
  346     1 13.589  43.242999999999995  2.559
  347     2 12.797  41.816  2.517
  348     2 14.05  44.106  2.483
  349     1 12.09  46.254  3.144
  350     1 13.258000000000001  45.532999999999994  2.441
  351     1 14.757  48.544  1.856
  352     1 13.589  47.823  2.559
  353     2 12.797  46.395999999999994  2.517
  354     2 14.05  48.68599999999999  2.483
  355     1 12.09  50.833999999999996  3.144
  356     1 13.258000000000001  50.113  2.441
  357     1 14.757  53.123999999999995  1.856
  358     1 13.589  52.403  2.559
  359     2 12.797  50.97599999999999  2.517
  360     2 14.05  53.266  2.483
  361     1 15.073  0.454  3.144
  362     1 16.241  54.693  2.441
  363     1 17.74  2.744  1.856
  364     1 16.572  2.0229999999999997  2.559
  365     2 15.78  0.5959999999999999  2.517
  366     2 17.033  2.886  2.483
  367     1 15.073  5.033999999999999  3.144
  368     1 16.241  4.313  2.441
  369     1 17.74  7.323999999999999  1.856
  370     1 16.572  6.602999999999999  2.559
  371     2 15.78  5.176  2.517
  372     2 17.033  7.466  2.483
  373     1 15.073  9.613999999999999  3.144
  374     1 16.241  8.893  2.441
  375     1 17.74  11.904  1.856
  376     1 16.572  11.183  2.559
  377     2 15.78  9.756  2.517
  378     2 17.033  12.046  2.483
  379     1 15.073  14.194  3.144
  380     1 16.241  13.473  2.441
  381     1 17.74  16.484  1.856
  382     1 16.572  15.763  2.559
  383     2 15.78  14.336  2.517
  384     2 17.033  16.626  2.483
  385     1 15.073  18.774  3.144
  386     1 16.241  18.052999999999997  2.441
  387     1 17.74  21.063999999999997  1.856
  388     1 16.572  20.343  2.559
  389     2 15.78  18.916  2.517
  390     2 17.033  21.205999999999996  2.483
  391     1 15.073  23.354  3.144
  392     1 16.241  22.632999999999996  2.441
  393     1 17.74  25.643999999999995  1.856
  394     1 16.572  24.922999999999995  2.559
  395     2 15.78  23.496  2.517
  396     2 17.033  25.785999999999998  2.483
  397     1 15.073  27.934  3.144
  398     1 16.241  27.213  2.441
  399     1 17.74  30.224  1.856
  400     1 16.572  29.502999999999997  2.559
  401     2 15.78  28.076  2.517
  402     2 17.033  30.366  2.483
  403     1 15.073  32.514  3.144
  404     1 16.241  31.792999999999996  2.441
  405     1 17.74  34.804  1.856
  406     1 16.572  34.08299999999999  2.559
  407     2 15.78  32.656  2.517
  408     2 17.033  34.946  2.483
  409     1 15.073  37.094  3.144
  410     1 16.241  36.373  2.441
  411     1 17.74  39.38399999999999  1.856
  412     1 16.572  38.663  2.559
  413     2 15.78  37.23599999999999  2.517
  414     2 17.033  39.526  2.483
  415     1 15.073  41.67399999999999  3.144
  416     1 16.241  40.953  2.441
  417     1 17.74  43.96399999999999  1.856
  418     1 16.572  43.242999999999995  2.559
  419     2 15.78  41.816  2.517
  420     2 17.033  44.106  2.483
  421     1 15.073  46.254  3.144
  422     1 16.241  45.532999999999994  2.441
  423     1 17.74  48.544  1.856
  424     1 16.572  47.823  2.559
  425     2 15.78  46.395999999999994  2.517
  426     2 17.033  48.68599999999999  2.483
  427     1 15.073  50.833999999999996  3.144
  428     1 16.241  50.113  2.441
  429     1 17.74  53.123999999999995  1.856
  430     1 16.572  52.403  2.559
  431     2 15.78  50.97599999999999  2.517
  432     2 17.033  53.266  2.483
  433     1 18.056  0.454  3.144
  434     1 19.224  54.693  2.441
  435     1 20.723  2.744  1.856
  436     1 19.555000000000003  2.0229999999999997  2.559
  437     2 18.763  0.5959999999999999  2.517
  438     2 20.016  2.886  2.483
  439     1 18.056  5.033999999999999  3.144
  440     1 19.224  4.313  2.441
  441     1 20.723  7.323999999999999  1.856
  442     1 19.555000000000003  6.602999999999999  2.559
  443     2 18.763  5.176  2.517
  444     2 20.016  7.466  2.483
  445     1 18.056  9.613999999999999  3.144
  446     1 19.224  8.893  2.441
  447     1 20.723  11.904  1.856
  448     1 19.555000000000003  11.183  2.559
  449     2 18.763  9.756  2.517
  450     2 20.016  12.046  2.483
  451     1 18.056  14.194  3.144
  452     1 19.224  13.473  2.441
  453     1 20.723  16.484  1.856
  454     1 19.555000000000003  15.763  2.559
  455     2 18.763  14.336  2.517
  456     2 20.016  16.626  2.483
  457     1 18.056  18.774  3.144
  458     1 19.224  18.052999999999997  2.441
  459     1 20.723  21.063999999999997  1.856
  460     1 19.555000000000003  20.343  2.559
  461     2 18.763  18.916  2.517
  462     2 20.016  21.205999999999996  2.483
  463     1 18.056  23.354  3.144
  464     1 19.224  22.632999999999996  2.441
  465     1 20.723  25.643999999999995  1.856
  466     1 19.555000000000003  24.922999999999995  2.559
  467     2 18.763  23.496  2.517
  468     2 20.016  25.785999999999998  2.483
  469     1 18.056  27.934  3.144
  470     1 19.224  27.213  2.441
  471     1 20.723  30.224  1.856
  472     1 19.555000000000003  29.502999999999997  2.559
  473     2 18.763  28.076  2.517
  474     2 20.016  30.366  2.483
  475     1 18.056  32.514  3.144
  476     1 19.224  31.792999999999996  2.441
  477     1 20.723  34.804  1.856
  478     1 19.555000000000003  34.08299999999999  2.559
  479     2 18.763  32.656  2.517
  480     2 20.016  34.946  2.483
  481     1 18.056  37.094  3.144
  482     1 19.224  36.373  2.441
  483     1 20.723  39.38399999999999  1.856
  484     1 19.555000000000003  38.663  2.559
  485     2 18.763  37.23599999999999  2.517
  486     2 20.016  39.526  2.483
  487     1 18.056  41.67399999999999  3.144
  488     1 19.224  40.953  2.441
  489     1 20.723  43.96399999999999  1.856
  490     1 19.555000000000003  43.242999999999995  2.559
  491     2 18.763  41.816  2.517
  492     2 20.016  44.106  2.483
  493     1 18.056  46.254  3.144
  494     1 19.224  45.532999999999994  2.441
  495     1 20.723  48.544  1.856
  496     1 19.555000000000003  47.823  2.559
  497     2 18.763  46.395999999999994  2.517
  498     2 20.016  48.68599999999999  2.483
  499     1 18.056  50.833999999999996  3.144
  500     1 19.224  50.113  2.441
  501     1 20.723  53.123999999999995  1.856
  502     1 19.555000000000003  52.403  2.559
  503     2 18.763  50.97599999999999  2.517
  504     2 20.016  53.266  2.483
  505     1 21.039  0.454  3.144
  506     1 22.207  54.693  2.441
  507     1 23.706000000000003  2.744  1.856
  508     1 22.538  2.0229999999999997  2.559
  509     2 21.746  0.5959999999999999  2.517
  510     2 22.999  2.886  2.483
  511     1 21.039  5.033999999999999  3.144
  512     1 22.207  4.313  2.441
  513     1 23.706000000000003  7.323999999999999  1.856
  514     1 22.538  6.602999999999999  2.559
  515     2 21.746  5.176  2.517
  516     2 22.999  7.466  2.483
  517     1 21.039  9.613999999999999  3.144
  518     1 22.207  8.893  2.441
  519     1 23.706000000000003  11.904  1.856
  520     1 22.538  11.183  2.559
  521     2 21.746  9.756  2.517
  522     2 22.999  12.046  2.483
  523     1 21.039  14.194  3.144
  524     1 22.207  13.473  2.441
  525     1 23.706000000000003  16.484  1.856
  526     1 22.538  15.763  2.559
  527     2 21.746  14.336  2.517
  528     2 22.999  16.626  2.483
  529     1 21.039  18.774  3.144
  530     1 22.207  18.052999999999997  2.441
  531     1 23.706000000000003  21.063999999999997  1.856
  532     1 22.538  20.343  2.559
  533     2 21.746  18.916  2.517
  534     2 22.999  21.205999999999996  2.483
  535     1 21.039  23.354  3.144
  536     1 22.207  22.632999999999996  2.441
  537     1 23.706000000000003  25.643999999999995  1.856
  538     1 22.538  24.922999999999995  2.559
  539     2 21.746  23.496  2.517
  540     2 22.999  25.785999999999998  2.483
  541     1 21.039  27.934  3.144
  542     1 22.207  27.213  2.441
  543     1 23.706000000000003  30.224  1.856
  544     1 22.538  29.502999999999997  2.559
  545     2 21.746  28.076  2.517
  546     2 22.999  30.366  2.483
  547     1 21.039  32.514  3.144
  548     1 22.207  31.792999999999996  2.441
  549     1 23.706000000000003  34.804  1.856
  550     1 22.538  34.08299999999999  2.559
  551     2 21.746  32.656  2.517
  552     2 22.999  34.946  2.483
  553     1 21.039  37.094  3.144
  554     1 22.207  36.373  2.441
  555     1 23.706000000000003  39.38399999999999  1.856
  556     1 22.538  38.663  2.559
  557     2 21.746  37.23599999999999  2.517
  558     2 22.999  39.526  2.483
  559     1 21.039  41.67399999999999  3.144
  560     1 22.207  40.953  2.441
  561     1 23.706000000000003  43.96399999999999  1.856
  562     1 22.538  43.242999999999995  2.559
  563     2 21.746  41.816  2.517
  564     2 22.999  44.106  2.483
  565     1 21.039  46.254  3.144
  566     1 22.207  45.532999999999994  2.441
  567     1 23.706000000000003  48.544  1.856
  568     1 22.538  47.823  2.559
  569     2 21.746  46.395999999999994  2.517
  570     2 22.999  48.68599999999999  2.483
  571     1 21.039  50.833999999999996  3.144
  572     1 22.207  50.113  2.441
  573     1 23.706000000000003  53.123999999999995  1.856
  574     1 22.538  52.403  2.559
  575     2 21.746  50.97599999999999  2.517
  576     2 22.999  53.266  2.483
  577     1 24.022  0.454  3.144
  578     1 25.19  54.693  2.441
  579     1 26.689  2.744  1.856
  580     1 25.521  2.0229999999999997  2.559
  581     2 24.729000000000003  0.5959999999999999  2.517
  582     2 25.982  2.886  2.483
  583     1 24.022  5.033999999999999  3.144
  584     1 25.19  4.313  2.441
  585     1 26.689  7.323999999999999  1.856
  586     1 25.521  6.602999999999999  2.559
  587     2 24.729000000000003  5.176  2.517
  588     2 25.982  7.466  2.483
  589     1 24.022  9.613999999999999  3.144
  590     1 25.19  8.893  2.441
  591     1 26.689  11.904  1.856
  592     1 25.521  11.183  2.559
  593     2 24.729000000000003  9.756  2.517
  594     2 25.982  12.046  2.483
  595     1 24.022  14.194  3.144
  596     1 25.19  13.473  2.441
  597     1 26.689  16.484  1.856
  598     1 25.521  15.763  2.559
  599     2 24.729000000000003  14.336  2.517
  600     2 25.982  16.626  2.483
  601     1 24.022  18.774  3.144
  602     1 25.19  18.052999999999997  2.441
  603     1 26.689  21.063999999999997  1.856
  604     1 25.521  20.343  2.559
  605     2 24.729000000000003  18.916  2.517
  606     2 25.982  21.205999999999996  2.483
  607     1 24.022  23.354  3.144
  608     1 25.19  22.632999999999996  2.441
  609     1 26.689  25.643999999999995  1.856
  610     1 25.521  24.922999999999995  2.559
  611     2 24.729000000000003  23.496  2.517
  612     2 25.982  25.785999999999998  2.483
  613     1 24.022  27.934  3.144
  614     1 25.19  27.213  2.441
  615     1 26.689  30.224  1.856
  616     1 25.521  29.502999999999997  2.559
  617     2 24.729000000000003  28.076  2.517
  618     2 25.982  30.366  2.483
  619     1 24.022  32.514  3.144
  620     1 25.19  31.792999999999996  2.441
  621     1 26.689  34.804  1.856
  622     1 25.521  34.08299999999999  2.559
  623     2 24.729000000000003  32.656  2.517
  624     2 25.982  34.946  2.483
  625     1 24.022  37.094  3.144
  626     1 25.19  36.373  2.441
  627     1 26.689  39.38399999999999  1.856
  628     1 25.521  38.663  2.559
  629     2 24.729000000000003  37.23599999999999  2.517
  630     2 25.982  39.526  2.483
  631     1 24.022  41.67399999999999  3.144
  632     1 25.19  40.953  2.441
  633     1 26.689  43.96399999999999  1.856
  634     1 25.521  43.242999999999995  2.559
  635     2 24.729000000000003  41.816  2.517
  636     2 25.982  44.106  2.483
  637     1 24.022  46.254  3.144
  638     1 25.19  45.532999999999994  2.441
  639     1 26.689  48.544  1.856
  640     1 25.521  47.823  2.559
  641     2 24.729000000000003  46.395999999999994  2.517
  642     2 25.982  48.68599999999999  2.483
  643     1 24.022  50.833999999999996  3.144
  644     1 25.19  50.113  2.441
  645     1 26.689  53.123999999999995  1.856
  646     1 25.521  52.403  2.559
  647     2 24.729000000000003  50.97599999999999  2.517
  648     2 25.982  53.266  2.483
  649     1 27.005  0.454  3.144
  650     1 28.173  54.693  2.441
  651     1 29.672  2.744  1.856
  652     1 28.504  2.0229999999999997  2.559
  653     2 27.712  0.5959999999999999  2.517
  654     2 28.965000000000003  2.886  2.483
  655     1 27.005  5.033999999999999  3.144
  656     1 28.173  4.313  2.441
  657     1 29.672  7.323999999999999  1.856
  658     1 28.504  6.602999999999999  2.559
  659     2 27.712  5.176  2.517
  660     2 28.965000000000003  7.466  2.483
  661     1 27.005  9.613999999999999  3.144
  662     1 28.173  8.893  2.441
  663     1 29.672  11.904  1.856
  664     1 28.504  11.183  2.559
  665     2 27.712  9.756  2.517
  666     2 28.965000000000003  12.046  2.483
  667     1 27.005  14.194  3.144
  668     1 28.173  13.473  2.441
  669     1 29.672  16.484  1.856
  670     1 28.504  15.763  2.559
  671     2 27.712  14.336  2.517
  672     2 28.965000000000003  16.626  2.483
  673     1 27.005  18.774  3.144
  674     1 28.173  18.052999999999997  2.441
  675     1 29.672  21.063999999999997  1.856
  676     1 28.504  20.343  2.559
  677     2 27.712  18.916  2.517
  678     2 28.965000000000003  21.205999999999996  2.483
  679     1 27.005  23.354  3.144
  680     1 28.173  22.632999999999996  2.441
  681     1 29.672  25.643999999999995  1.856
  682     1 28.504  24.922999999999995  2.559
  683     2 27.712  23.496  2.517
  684     2 28.965000000000003  25.785999999999998  2.483
  685     1 27.005  27.934  3.144
  686     1 28.173  27.213  2.441
  687     1 29.672  30.224  1.856
  688     1 28.504  29.502999999999997  2.559
  689     2 27.712  28.076  2.517
  690     2 28.965000000000003  30.366  2.483
  691     1 27.005  32.514  3.144
  692     1 28.173  31.792999999999996  2.441
  693     1 29.672  34.804  1.856
  694     1 28.504  34.08299999999999  2.559
  695     2 27.712  32.656  2.517
  696     2 28.965000000000003  34.946  2.483
  697     1 27.005  37.094  3.144
  698     1 28.173  36.373  2.441
  699     1 29.672  39.38399999999999  1.856
  700     1 28.504  38.663  2.559
  701     2 27.712  37.23599999999999  2.517
  702     2 28.965000000000003  39.526  2.483
  703     1 27.005  41.67399999999999  3.144
  704     1 28.173  40.953  2.441
  705     1 29.672  43.96399999999999  1.856
  706     1 28.504  43.242999999999995  2.559
  707     2 27.712  41.816  2.517
  708     2 28.965000000000003  44.106  2.483
  709     1 27.005  46.254  3.144
  710     1 28.173  45.532999999999994  2.441
  711     1 29.672  48.544  1.856
  712     1 28.504  47.823  2.559
  713     2 27.712  46.395999999999994  2.517
  714     2 28.965000000000003  48.68599999999999  2.483
  715     1 27.005  50.833999999999996  3.144
  716     1 28.173  50.113  2.441
  717     1 29.672  53.123999999999995  1.856
  718     1 28.504  52.403  2.559
  719     2 27.712  50.97599999999999  2.517
  720     2 28.965000000000003  53.266  2.483
  721     1 29.988000000000003  0.454  3.144
  722     1 31.156  54.693  2.441
  723     1 32.655  2.744  1.856
  724     1 31.487  2.0229999999999997  2.559
  725     2 30.695  0.5959999999999999  2.517
  726     2 31.948  2.886  2.483
  727     1 29.988000000000003  5.033999999999999  3.144
  728     1 31.156  4.313  2.441
  729     1 32.655  7.323999999999999  1.856
  730     1 31.487  6.602999999999999  2.559
  731     2 30.695  5.176  2.517
  732     2 31.948  7.466  2.483
  733     1 29.988000000000003  9.613999999999999  3.144
  734     1 31.156  8.893  2.441
  735     1 32.655  11.904  1.856
  736     1 31.487  11.183  2.559
  737     2 30.695  9.756  2.517
  738     2 31.948  12.046  2.483
  739     1 29.988000000000003  14.194  3.144
  740     1 31.156  13.473  2.441
  741     1 32.655  16.484  1.856
  742     1 31.487  15.763  2.559
  743     2 30.695  14.336  2.517
  744     2 31.948  16.626  2.483
  745     1 29.988000000000003  18.774  3.144
  746     1 31.156  18.052999999999997  2.441
  747     1 32.655  21.063999999999997  1.856
  748     1 31.487  20.343  2.559
  749     2 30.695  18.916  2.517
  750     2 31.948  21.205999999999996  2.483
  751     1 29.988000000000003  23.354  3.144
  752     1 31.156  22.632999999999996  2.441
  753     1 32.655  25.643999999999995  1.856
  754     1 31.487  24.922999999999995  2.559
  755     2 30.695  23.496  2.517