LAMMPS data file generated get_lammps_data.py [VK]

432 atoms
2 atom types

0.0 37.426 xlo xhi
0.0 25.645998437556347 ylo yhi
0.0 14.993998857822591 zlo zhi
-0.008952142617528613 -0.005233893254590346 -0.002618773800060621 xy xz yz

Masses

1 1.008
2 15.999

Atoms

    1     2 0.701  0.625  2.5440000000000005
    2     1 0.0070478573824713855  25.59799843755635  2.735
    3     1 1.4290000000000003  12.817  2.059
    4     2 2.3980000000000006  2.6839999999999997  2.4720000000000004
    5     1 2.924  1.975  2.117
    6     1 1.724  2.214  2.9770000000000003
    7     2 0.821  4.793  2.506
    8     1 0.272  4.077  2.848
    9     1 1.296  4.406999999999999  1.734
   10     2 2.467  6.835999999999999  2.5130000000000003
   11     1 3.007  6.106999999999999  2.1140000000000003
   12     1 1.815  6.392999999999999  3.0550000000000006
   13     2 0.857  9.062  2.4920000000000004
   14     1 0.326  8.238  2.4280000000000004
   15     1 1.4890000000000003  8.891  1.7640000000000002
   16     2 2.417  11.161  2.5190000000000006
   17     1 3.031  10.425999999999998  2.4850000000000003
   18     1 1.6710000000000003  10.720999999999998  2.9580000000000006
   19     2 3.7970000000000006  0.466  2.5220000000000002
   20     1 3.2490478573824717  25.455998437556346  2.9440000000000004
   21     1 4.499  12.912999999999998  1.912
   22     2 5.473000000000001  2.7439999999999998  2.5020000000000002
   23     1 5.861  1.839  2.3770000000000002
   24     1 4.887  2.6069999999999998  3.2660000000000005
   25     2 3.9850000000000003  4.773999999999999  2.4760000000000004
   26     1 3.426  3.9969999999999994  2.6840000000000006
   27     1 4.630000000000001  4.363  1.8920000000000001
   28     2 5.648  6.840999999999999  2.4650000000000003
   29     1 6.351000000000001  6.213  2.2850000000000006
   30     1 4.914  6.278999999999999  2.7530000000000006
   31     2 3.9580000000000006  9.079  2.4870000000000005
   32     1 3.5710000000000006  8.262  2.7880000000000003
   33     1 4.5600000000000005  8.89  1.7590000000000001
   34     2 5.472000000000001  11.16  2.5280000000000005
   35     1 6.159  10.563  2.1990000000000003
   36     1 5.107  10.681  3.2800000000000002
   37     2 6.958  0.601  2.5050000000000003
   38     1 6.407047857382473  25.503998437556348  2.7660000000000005
   39     1 7.713000000000001  13.094  1.902
   40     2 8.698  2.589  2.5590000000000006
   41     1 9.306  1.937  2.2210000000000005
   42     1 8.08  2.056  3.0620000000000003
   43     2 7.2700000000000005  4.682  2.5970000000000004
   44     1 6.554  4.031  2.7040000000000006
   45     1 8.036  4.213  2.3510000000000004
   46     2 8.781  6.942  2.508
   47     1 9.309  6.302999999999999  2.0
   48     1 8.137  6.468999999999999  3.0310000000000006
   49     2 7.01  9.084  2.4480000000000004
   50     1 6.422  8.344  2.525
   51     1 7.657000000000001  8.705  1.8610000000000002
   52     2 8.705  11.317  2.5370000000000004
   53     1 9.31  10.601  2.2470000000000003
   54     1 8.124  10.881  3.1330000000000005
   55     2 10.285000000000002  0.554  2.458
   56     1 9.534047857382472  25.56899843755635  2.6450000000000005
   57     1 10.609000000000002  13.262999999999998  1.8230000000000002
   58     2 12.023  2.6789999999999994  2.49
   59     1 12.747  2.144  2.141
   60     1 11.478000000000002  1.987  2.9440000000000004
   61     2 10.275000000000002  4.650999999999999  2.4570000000000003
   62     1 9.726  3.956  2.928
   63     1 10.957  4.216999999999999  1.9960000000000002
   64     2 11.692  6.912  2.445
   65     1 12.357  6.233999999999999  2.3090000000000006
   66     1 11.004  6.452999999999999  2.9310000000000005
   67     2 9.963000000000001  9.164  2.51
   68     1 9.407  8.374  2.6190000000000007
   69     1 10.695000000000002  8.723999999999998  2.0750000000000006
   70     2 11.592  11.43  2.521
   71     1 12.008000000000001  10.523  2.297
   72     1 10.892  11.198  3.1350000000000002
   73     2 0.729  13.294  2.5200000000000005
   74     1 0.182  12.54  2.7930000000000006
   75     1 1.395952142617529  0.026001562443648225  2.2340000000000004
   76     2 2.4650000000000003  15.483  2.506
   77     1 2.916  14.670999999999998  2.2470000000000003
   78     1 1.689  15.255  2.9920000000000004
   79     2 0.678  17.625  2.5110000000000006
   80     1 0.087  16.873  2.7470000000000003
   81     1 1.166  17.362  1.7130000000000003
   82     2 2.3240000000000003  19.748  2.475
   83     1 3.1080000000000005  19.151  2.258
   84     1 1.7800000000000002  19.271  3.1540000000000004
   85     2 0.6370000000000001  21.902  2.525
   86     1 0.125  21.105999999999998  2.781
   87     1 1.224  21.441999999999997  1.913
   88     2 2.187  24.016  2.4960000000000004
   89     1 2.671  23.287999999999997  2.046
   90     1 1.6030000000000002  23.425999999999995  3.004
   91     2 3.8290000000000006  13.237999999999998  2.506
   92     1 3.182  12.526999999999997  2.677
   93     1 4.445  25.544  2.0970000000000004
   94     2 5.406000000000001  15.340999999999998  2.5130000000000003
   95     1 6.152  14.752  2.4540000000000006
   96     1 4.929000000000001  14.947  3.2590000000000003
   97     2 3.9820000000000007  17.605  2.495
   98     1 3.2930000000000006  16.949999999999996  2.7190000000000003
   99     1 4.525  17.087  1.9390000000000003
  100     2 5.380000000000001  19.931999999999995  2.4550000000000005
  101     1 5.933  19.221  2.165
  102     1 5.003000000000001  19.56  3.2760000000000002
  103     2 3.657  21.973999999999997  2.5320000000000005
  104     1 3.1160000000000005  21.262  2.8860000000000006
  105     1 4.367000000000001  21.474  2.1510000000000002
  106     2 5.418  24.077  2.516
  107     1 5.887  23.285  2.157
  108     1 4.730000000000001  23.731  3.095
  109     2 7.053  13.357999999999999  2.5560000000000005
  110     1 6.523000000000001  12.572999999999999  2.7760000000000002
  111     1 7.579952142617528  0.18700156244364874  1.9250000000000003
  112     2 8.802  15.686  2.4680000000000004
  113     1 9.409  14.829  2.464
  114     1 8.289  15.494999999999997  3.2680000000000002
  115     2 6.857  17.595999999999997  2.5190000000000006
  116     1 6.243  16.984999999999996  2.967
  117     1 7.1850000000000005  17.175  1.7160000000000002
  118     2 8.363  19.854999999999997  2.5480000000000005
  119     1 9.041  19.14  2.3570000000000007
  120     1 7.839  19.351999999999997  3.1780000000000004
  121     2 6.813000000000001  22.087  2.4540000000000006
  122     1 6.341000000000001  21.284  2.731
  123     1 7.359000000000001  21.742999999999995  1.7640000000000002
  124     2 8.556  24.158  2.525
  125     1 8.808  23.203999999999997  2.414
  126     1 7.977  24.187  3.2670000000000003
  127     2 10.039000000000001  13.565  2.523
  128     1 9.528000000000002  12.739  2.7500000000000004
  129     1 10.909952142617527  0.03100156244364996  1.9860000000000002
  130     2 11.890000000000002  15.777999999999999  2.4910000000000005
  131     1 12.359  14.913  2.423
  132     1 11.307  15.686999999999998  3.2480000000000007
  133     2 10.038  17.894  2.5320000000000005
  134     1 9.559  17.005  2.6600000000000006
  135     1 10.696  17.773999999999997  1.8170000000000002
  136     2 11.766  19.842999999999996  2.4920000000000004
  137     1 12.376000000000001  19.147999999999996  2.2590000000000003
  138     1 11.17  19.348  3.0920000000000005
  139     2 9.863  22.028999999999996  2.5050000000000003
  140     1 9.463  21.22  2.9
  141     1 10.477000000000002  21.534  1.9440000000000002
  142     2 11.584000000000001  24.099  2.4830000000000005
  143     1 12.253000000000002  23.338999999999995  2.3530000000000006
  144     1 10.897  23.527  2.8060000000000005
  145     2 13.318000000000001  0.414  2.495
  146     1 12.602047857382475  25.385998437556346  2.7110000000000003
  147     1 13.749000000000002  13.043999999999999  1.9850000000000005
  148     2 14.995  2.6539999999999995  2.471
  149     1 15.360000000000001  1.7799999999999998  2.261
  150     1 14.649  2.526  3.368
  151     2 13.402000000000001  4.899  2.5710000000000006
  152     1 12.964  4.107  2.9060000000000006
  153     1 13.509  4.575999999999999  1.656
  154     2 14.934000000000001  7.113  2.4720000000000004
  155     1 15.364000000000003  6.227999999999999  2.5310000000000006
  156     1 14.259000000000002  6.983  3.1000000000000005
  157     2 13.066  9.136  2.4540000000000006
  158     1 12.563  8.309  2.5970000000000004
  159     1 13.654000000000002  9.043  1.7160000000000002
  160     2 14.545000000000002  11.285  2.4930000000000003
  161     1 15.028  10.475  2.5760000000000005
  162     1 13.787000000000003  11.211999999999998  3.0490000000000004
  163     2 16.38  0.45499999999999996  2.5260000000000002
  164     1 15.739047857382472  25.40099843755635  2.7710000000000004
  165     1 17.059  12.952999999999998  2.1210000000000004
  166     2 17.859  2.695  2.501
  167     1 18.4  1.8319999999999999  2.3770000000000002
  168     1 17.096  2.397  2.9700000000000006
  169     2 16.377  4.912  2.4910000000000005
  170     1 15.719000000000001  4.177  2.445
  171     1 17.009  4.729  1.839
  172     2 18.126  7.063999999999999  2.4910000000000005
  173     1 18.793  6.306  2.3590000000000004
  174     1 17.352  6.577  2.8420000000000005
  175     2 16.306  9.269999999999998  2.5710000000000006
  176     1 15.858000000000002  8.398999999999997  2.6610000000000005
  177     1 16.755  9.157  1.7120000000000002
  178     2 18.053  11.385999999999997  2.542
  179     1 18.581  10.608  2.2700000000000005
  180     1 17.398  11.0  3.1200000000000006
  181     2 19.376000000000005  0.49899999999999994  2.4240000000000004
  182     1 19.02304785738247  25.197998437556347  2.46
  183     1 20.008  12.989999999999998  1.7930000000000001
  184     2 21.005000000000003  2.6059999999999994  2.5410000000000004
  185     1 21.477  1.722  2.525
  186     1 20.220000000000002  2.5469999999999997  3.0570000000000004
  187     2 19.435000000000002  4.813  2.4960000000000004
  188     1 18.763  4.097  2.655
  189     1 20.04  4.504  1.7890000000000001
  190     2 21.141  6.930999999999999  2.445
  191     1 21.563000000000002  6.1339999999999995  2.1790000000000003
  192     1 20.659000000000002  6.704  3.2420000000000004
  193     2 19.437  9.236  2.5590000000000006
  194     1 18.847  8.48  2.664
  195     1 20.087  8.910999999999998  1.913
  196     2 21.12  11.294999999999998  2.4720000000000004
  197     1 21.729  10.522  2.369
  198     1 20.426  10.899999999999999  2.9690000000000003
  199     2 22.582  0.556  2.4720000000000004
  200     1 22.18904785738247  25.275998437556346  2.54
  201     1 23.342000000000002  12.938999999999998  2.375
  202     2 24.347000000000005  2.6639999999999997  2.4500000000000006
  203     1 24.825000000000003  1.8609999999999998  2.3050000000000006
  204     1 23.527000000000005  2.268  2.8230000000000004
  205     2 22.516  4.659  2.4980000000000007
  206     1 21.810000000000002  3.924  2.4310000000000005
  207     1 23.225000000000005  4.198  1.989
  208     2 24.175  6.921  2.5690000000000004
  209     1 24.832  6.154  2.427
  210     1 23.39  6.482999999999999  2.9
  211     2 22.591  9.005  2.4790000000000005
  212     1 22.006  8.251  2.6080000000000005
  213     1 23.259  8.638  1.923
  214     2 24.033  11.265999999999998  2.5000000000000004
  215     1 24.649  10.545999999999998  2.222
  216     1 23.575  10.837999999999997  3.234
  217     2 13.101000000000003  13.556  2.5130000000000003
  218     1 12.43  12.937  2.768
  219     1 13.86395214261753  0.012001562443648897  1.8480000000000003
  220     2 15.023000000000001  15.597999999999999  2.5560000000000005
  221     1 15.549000000000001  14.785999999999998  2.3980000000000006
  222     1 14.197  15.238  2.8560000000000003
  223     2 13.387000000000002  17.846  2.4980000000000007
  224     1 12.768  17.117  2.6500000000000004
  225     1 13.979  17.558  1.8160000000000003
  226     2 14.870000000000001  19.942999999999998  2.5440000000000005
  227     1 15.369  19.191  2.2510000000000003
  228     1 14.382  19.502  3.234
  229     2 13.094  22.002  2.5630000000000006
  230     1 12.751  21.127999999999997  2.746
  231     1 13.682000000000002  21.871  1.8190000000000002
  232     2 14.935000000000002  23.899999999999995  2.4670000000000005
  233     1 15.683000000000002  23.324  2.256
  234     1 14.300000000000002  23.45  3.0510000000000006
  235     2 16.279  13.337999999999997  2.523
  236     1 15.634  12.564  2.6240000000000006
  237     1 17.112952142617527  0.01600156244364863  2.0410000000000004
  238     2 18.029  15.629  2.4390000000000005
  239     1 18.545  14.805  2.248
  240     1 17.465  15.369  3.158
  241     2 16.25  17.797  2.51
  242     1 15.779000000000002  16.901  2.4630000000000005
  243     1 17.027  17.597  2.011
  244     2 18.156  19.947  2.536
  245     1 18.648000000000003  19.077999999999996  2.408
  246     1 17.386  19.877  3.1290000000000004
  247     2 16.492  21.927999999999997  2.573
  248     1 15.848  21.158999999999995  2.6000000000000005
  249     1 17.2  21.651  1.993
  250     2 18.181000000000004  24.044  2.4370000000000003
  251     1 18.865  23.291999999999998  2.3440000000000003
  252     1 17.716  23.707999999999995  3.201
  253     2 19.461000000000002  13.549  2.4260000000000006
  254     1 19.006000000000004  12.847999999999999  2.8920000000000003
  255     1 20.064952142617532  0.4280015624436505  1.7380000000000002
  256     2 21.187000000000005  15.534999999999998  2.4290000000000003
  257     1 21.702  14.718  2.2160000000000006
  258     1 20.418000000000003  15.236999999999998  2.9380000000000006
  259     2 19.431000000000004  17.719  2.4520000000000004
  260     1 18.895  16.940999999999995  2.6000000000000005
  261     1 20.233  17.359  2.0750000000000006
  262     2 21.178  19.878  2.4850000000000003
  263     1 21.738  19.099  2.4020000000000006
  264     1 20.592000000000002  19.660999999999998  3.2290000000000005
  265     2 19.604  22.017999999999997  2.536
  266     1 19.093000000000004  21.209999999999997  2.4200000000000004
  267     1 20.316  22.001  1.903
  268     2 21.337  24.044999999999998  2.4540000000000006
  269     1 21.849000000000004  23.197  2.508
  270     1 20.635  23.988999999999997  3.0620000000000003
  271     2 22.543  13.448  2.523
  272     1 22.019  12.719  2.833
  273     1 23.190952142617526  0.5250015624436516  1.7240000000000002
  274     2 24.205000000000002  15.664999999999997  2.4370000000000003
  275     1 24.762000000000004  14.923999999999998  2.107
  276     1 23.644000000000002  15.289999999999997  3.1440000000000006
  277     2 22.597  17.732999999999997  2.5520000000000005
  278     1 22.129  16.876  2.503
  279     1 23.296  17.641  1.8950000000000005
  280     2 24.368  19.886999999999997  2.4780000000000006
  281     1 24.792  19.053999999999995  2.501
  282     1 23.529  19.721999999999998  2.9210000000000003
  283     2 22.584  21.915999999999997  2.508
  284     1 22.003000000000004  21.111  2.486
  285     1 23.269  21.685  1.903
  286     2 24.211  23.944  2.4800000000000004
  287     1 24.859000000000005  23.156999999999996  2.5570000000000004
  288     1 23.574000000000005  23.697  3.158
  289     2 25.635000000000005  0.41  2.4930000000000003
  290     1 25.014047857382472  25.28099843755635  2.5650000000000004
  291     1 26.355  13.023999999999997  2.165
  292     2 27.385  2.6759999999999997  2.397
  293     1 27.791  1.756  2.315
  294     1 26.649  2.3949999999999996  2.9290000000000003
  295     2 25.789  4.909999999999999  2.425
  296     1 25.368000000000002  4.023999999999999  2.516
  297     1 26.302000000000003  4.886  1.645
  298     2 27.244000000000003  7.239999999999999  2.5020000000000002
  299     1 27.824  6.517999999999999  2.237
  300     1 26.819000000000003  6.887999999999999  3.2930000000000006
  301     2 25.512  9.135  2.484
  302     1 24.948000000000004  8.357  2.7390000000000003
  303     1 26.15  8.701999999999998  1.927
  304     2 27.120000000000005  11.279  2.5500000000000003
  305     1 27.702000000000005  10.53  2.321
  306     1 26.441  10.849  3.084
  307     2 28.686  0.461  2.4290000000000003
  308     1 28.17904785738247  25.258998437556347  2.655
  309     1 29.201  13.015  1.8060000000000003
  310     2 30.297  2.7579999999999996  2.4910000000000005
  311     1 31.011000000000003  2.0939999999999994  2.317
  312     1 29.606  2.2009999999999996  2.839
  313     2 28.612  4.992999999999999  2.475
  314     1 28.077000000000005  4.186  2.7190000000000003
  315     1 29.416000000000004  4.6659999999999995  2.059
  316     2 30.274  7.140999999999999  2.4460000000000006
  317     1 30.774000000000004  6.374  2.347
  318     1 29.66  6.9079999999999995  3.1640000000000006
  319     2 28.638  9.226  2.471
  320     1 28.103000000000005  8.435  2.367
  321     1 29.376000000000005  8.978999999999997  1.927
  322     2 30.423000000000002  11.233  2.4610000000000003
  323     1 31.052  10.434  2.326
  324     1 29.786  10.969  3.1260000000000003
  325     2 31.815  0.551  2.499
  326     1 31.136047857382472  25.52899843755635  2.8690000000000007
  327     1 32.39  12.785  2.0080000000000005
  328     2 33.526  2.5649999999999995  2.5000000000000004
  329     1 33.96500000000001  1.7109999999999999  2.3510000000000004
  330     1 32.878  2.397  3.1350000000000002
  331     2 31.734000000000005  4.834  2.527
  332     1 31.087000000000003  4.2059999999999995  2.798
  333     1 32.334  4.349  1.9570000000000005
  334     2 33.563  6.944  2.497
  335     1 34.209  6.311999999999999  2.265
  336     1 32.857  6.402999999999999  2.9120000000000004
  337     2 31.885000000000005  9.232999999999999  2.462
  338     1 31.423  8.417  2.7120000000000006
  339     1 32.575  9.015  1.8440000000000003
  340     2 33.647  11.119  2.5090000000000003
  341     1 34.295  10.365  2.4330000000000003
  342     1 32.992  10.836999999999998  3.162
  343     2 35.054  0.506  2.5320000000000005
  344     1 34.291  0.013  2.8620000000000005
  345     1 35.746  12.646999999999998  1.9090000000000005
  346     2 36.575  2.725  2.4960000000000004
  347     1 37.285  2.023  2.3680000000000003
  348     1 35.863  2.13  2.7140000000000004
  349     2 34.953  4.7509999999999994  2.5310000000000006
  350     1 34.226  4.114  2.7250000000000005
  351     1 35.713  4.187  2.204
  352     2 36.719  6.972  2.49
  353     1 37.26800000000001  6.1659999999999995  2.3940000000000006
  354     1 35.979  6.734  3.0750000000000006
  355     2 35.095  9.035999999999998  2.558
  356     1 34.445  8.277  2.6560000000000006
  357     1 35.743  8.671  1.9840000000000004
  358     2 36.684  11.092  2.516
  359     1 37.257  10.297999999999998  2.4350000000000005
  360     1 36.052  10.815  3.1590000000000003
  361     2 25.572  13.467  2.5000000000000004
  362     1 24.935  12.762  2.6470000000000002
  363     1 26.300952142617536  0.10200156244365109  1.8630000000000002
  364     2 27.431000000000004  15.609  2.5050000000000003
  365     1 27.913000000000004  14.733  2.54
  366     1 26.539  15.418  2.8140000000000005
  367     2 25.568  17.665999999999997  2.5280000000000005
  368     1 25.047000000000004  16.829  2.62
  369     1 26.161  17.472  1.8060000000000003
  370     2 27.357  19.838999999999995  2.408
  371     1 27.908000000000005  19.008  2.414
  372     1 26.901  19.789  3.2740000000000005
  373     2 25.805  21.942999999999998  2.59
  374     1 25.279  21.08  2.4800000000000004
  375     1 26.292  21.996999999999996  1.7850000000000001
  376     2 27.382  23.927999999999997  2.529
  377     1 27.892  23.122999999999998  2.2960000000000003
  378     1 26.938  23.685999999999996  3.3280000000000003
  379     2 28.655000000000005  13.296  2.5330000000000004
  380     1 28.24  12.518  2.9160000000000004
  381     1 29.416952142617536  0.07000156244365602  1.8970000000000002
  382     2 30.282  15.488  2.4280000000000004
  383     1 30.863  14.640999999999998  2.369
  384     1 29.636000000000003  15.21  3.0790000000000006
  385     2 28.681  17.696  2.5200000000000005
  386     1 28.176  16.877999999999997  2.5970000000000004
  387     1 29.281  17.337  1.8320000000000003
  388     2 30.564  19.772999999999996  2.503
  389     1 31.166  19.027  2.2440000000000007
  390     1 29.943000000000005  19.376999999999995  3.162
  391     2 28.862000000000002  21.775999999999996  2.4790000000000005
  392     1 28.279  20.932  2.54
  393     1 29.633000000000003  21.512  2.0120000000000005
  394     2 30.409  24.003  2.4650000000000003
  395     1 31.1  23.328  2.295
  396     1 29.761  23.475  2.9460000000000006
  397     2 31.81  13.379  2.5170000000000003
  398     1 31.073  12.715999999999998  2.735
  399     1 32.32995214261753  0.037001562443649036  1.8410000000000002
  400     2 33.714  15.302  2.4240000000000004
  401     1 34.347  14.572999999999999  2.2420000000000004
  402     1 32.936  14.816  2.7360000000000007
  403     2 31.802  17.514  2.512
  404     1 31.122000000000003  16.748  2.603
  405     1 32.594  17.131999999999998  2.0840000000000005
  406     2 33.69100000000001  19.748  2.4930000000000003
  407     1 34.021  18.841999999999995  2.458
  408     1 32.916  19.648  3.108
  409     2 31.886  21.903  2.4650000000000003
  410     1 31.336000000000002  21.067  2.5850000000000004
  411     1 32.588  21.623  1.889
  412     2 33.419  24.078999999999997  2.5820000000000003
  413     1 33.949  23.399999999999995  2.208
  414     1 32.927  23.525  3.2070000000000003
  415     2 35.163  13.166  2.4960000000000004
  416     1 34.44800000000001  12.543  2.709
  417     1 35.648  25.447  2.1860000000000004
  418     2 36.713  15.411999999999999  2.4920000000000004
  419     1 37.392  14.735  2.4180000000000006
  420     1 36.018  14.888999999999998  2.948
  421     2 34.917  17.531  2.54
  422     1 34.462  16.710999999999995  2.657
  423     1 35.635  17.349  1.9280000000000002
  424     2 36.705  19.713  2.5320000000000005
  425     1 37.20300000000001  18.927  2.2860000000000005
  426     1 36.112  19.519999999999996  3.2590000000000003
  427     2 35.034000000000006  21.927999999999997  2.4650000000000003
  428     1 34.607  21.048  2.3920000000000003
  429     1 35.754  21.618999999999996  1.8970000000000002
  430     2 36.586  24.009  2.5070000000000006
  431     1 37.259  23.347  2.276
  432     1 36.027  23.5  3.0790000000000006

