LAMMPS data file generated get_lammps_data.py [VK]

432 atoms
2 atom types

0.0 40.74085952170461 xlo xhi
0.0 30.519840864365477 ylo yhi
0.0 15.0 zlo zhi
0.0007539083860353741 0.0 0.0 xy xz yz

Masses

1 1.008
2 15.999

Atoms

    1     2 10.012621997610172  1.1900811094605783  2.52145699
    2     1 0.5989250975175489  1.78153173153821  2.39341447
    3     1 9.197420903703074  1.738316266004521  2.54729482
    4     2 10.053832689143983  8.676397525239274  2.46025975
    5     1 0.6784997852169289  8.324685701390582  2.87307695
    6     1 10.093961535297362  9.671037795952346  2.50169488
    7     2 1.13497832030271  5.071927989660927  2.52113129
    8     1 1.6890357370938878  4.343560438058673  2.18249089
    9     1 1.6737383227440188  5.895796419593482  2.50876996
   10     2 3.511928447267452  0.13192388913279943  2.49057303
   11     1 3.1319255553563736  9.415402687751955  2.64299908
   12     1 4.500300911343083  0.048171969094755296  2.52273853
   13     2 4.920325735712249  3.901868797619018  2.4795926
   14     1 5.691834025766953  3.310122839434024  2.60635836
   15     1 4.105167229483731  3.353648502761946  2.45254517
   16     2 4.961610503588988  6.589095000063601  2.54049623
   17     1 5.771405674197137  6.940780268458512  2.12748206
   18     1 5.0017055278832565  5.594471701002007  2.49902662
   19     2 6.227932903735201  0.020144924377956775  2.47837066
   20     1 6.781949177138047  0.7485064642525128  2.81710188
   21     1 6.766736121615326  9.369441835879003  2.49124678
   22     2 8.603959885876783  4.959652499910114  2.50910288
   23     1 8.223749923866395  5.84959305108326  2.35726893
   24     1 9.592321303890579  5.043463680199209  2.47704691
   25     2 2.413901042731443  2.491082081342955  2.59304119
   26     1 2.2952011236847163  2.63805283816198  3.5503314
   27     1 2.808864312923862  1.5577116726565938  2.52697442
   28     2 2.5395838711592993  7.566158982202217  2.40424928
   29     1 2.3673068160192443  7.72452786361248  1.45694563
   30     1 3.492415391647903  7.218108847394638  2.44470774
   31     2 7.506519078312515  2.6004373360444917  2.40593688
   32     1 7.387843305977166  2.4534140521708205  1.44865564
   33     1 7.901295231101381  3.5339175925983413  2.47208523
   34     2 7.632287450268842  7.698538584780039  2.59619243
   35     1 7.459824390217549  7.540367040725415  3.54349542
   36     1 8.585045676574751  8.04683775201423  2.55584494
   37     2 10.012873300460624  11.363361396356924  2.52145699
   38     1 0.5991764003680036  11.954812018434556  2.39341447
   39     1 9.19767220655353  11.911596552900866  2.54729482
   40     2 10.054083991994435  18.84967781213562  2.46025975
   41     1 0.6787510880673836  18.497965988286925  2.87307695
   42     1 10.094212838147817  19.84431808284869  2.50169488
   43     2 1.1352296231531647  15.245208276557273  2.52113129
   44     1 1.689287039944343  14.516840724955017  2.18249089
   45     1 1.6739896255944735  16.06907670648983  2.50876996
   46     2 3.5121797501179075  10.305204176029145  2.49057303
   47     1 3.132176858206828  19.588682974648304  2.64299908
   48     1 4.5005522141935375  10.221452255991101  2.52273853
   49     2 4.920577038562704  14.075149084515363  2.4795926
   50     1 5.692085328617407  13.48340312633037  2.60635836
   51     1 4.105418532334187  13.526928789658292  2.45254517
   52     2 4.961861806439443  16.762375286959944  2.54049623
   53     1 5.771656977047592  17.114060555354857  2.12748206
   54     1 5.001956830733709  15.767751987898354  2.49902662
   55     2 6.228184206585655  10.1934252112743  2.47837066
   56     1 6.782200479988502  10.92178675114886  2.81710188
   57     1 6.766987424465782  19.54272212277535  2.49124678
   58     2 8.60421118872724  15.132932786806458  2.50910288
   59     1 8.224001226716851  16.022873337979604  2.35726893
   60     1 9.592572606741033  15.216743967095555  2.47704691
   61     2 2.4141523455818983  12.664362368239301  2.59304119
   62     1 2.2954524265351712  12.811333125058324  3.5503314
   63     1 2.8091156157743176  11.730991959552938  2.52697442
   64     2 2.5398351740097542  17.73943926909856  2.40424928
   65     1 2.367558118869699  17.897808150508826  1.45694563
   66     1 3.492666694498357  17.391389134290986  2.44470774
   67     2 7.50677038116297  12.773717622940838  2.40593688
   68     1 7.388094608827621  12.626694339067166  1.44865564
   69     1 7.901546533951835  13.707197879494686  2.47208523
   70     2 7.632538753119299  17.871818871676382  2.59619243
   71     1 7.460075693068003  17.713647327621757  3.54349542
   72     1 8.585296979425205  18.220118038910577  2.55584494
   73     2 10.013124603311079  21.53664168325327  2.52145699
   74     1 0.5994277032184585  22.128092305330902  2.39341447
   75     1 9.197923509403985  22.084876839797207  2.54729482
   76     2 10.054335294844893  29.02295809903196  2.46025975
   77     1 0.6790023909178385  28.67124627518327  2.87307695
   78     1 10.094464140998273  30.017598369745038  2.50169488
   79     2 1.1354809260036196  25.418488563453614  2.52113129
   80     1 1.6895383427947974  24.69012101185136  2.18249089
   81     1 1.6742409284449282  26.242356993386174  2.50876996
   82     2 3.512431052968362  20.47848446292549  2.49057303
   83     1 3.132428161057283  29.761963261544643  2.64299908
   84     1 4.500803517043992  20.394732542887446  2.52273853
   85     2 4.920828341413158  24.248429371411707  2.4795926
   86     1 5.692336631467863  23.656683413226713  2.60635836
   87     1 4.105669835184642  23.700209076554636  2.45254517
   88     2 4.962113109289898  26.935655573856295  2.54049623
   89     1 5.771908279898047  27.2873408422512  2.12748206
   90     1 5.002208133584166  25.9410322747947  2.49902662
   91     2 6.22843550943611  20.366705498170646  2.47837066
   92     1 6.782451782838958  21.095067038045205  2.81710188
   93     1 6.7672387273162355  29.716002409671695  2.49124678
   94     2 8.604462491577694  25.306213073702803  2.50910288
   95     1 8.224252529567305  26.196153624875947  2.35726893
   96     1 9.592823909591486  25.3900242539919  2.47704691
   97     2 2.414403648432353  22.837642655135646  2.59304119
   98     1 2.295703729385626  22.984613411954673  3.5503314
   99     1 2.809366918624772  21.904272246449285  2.52697442
  100     2 2.5400864768602087  27.912719555994908  2.40424928
  101     1 2.3678094217201537  28.07108843740517  1.45694563
  102     1 3.492917997348812  27.56466942118733  2.44470774
  103     2 7.5070216840134245  22.94699790983718  2.40593688
  104     1 7.388345911678076  22.79997462596351  1.44865564
  105     1 7.90179783680229  23.880478166391033  2.47208523
  106     2 7.6327900559697515  28.045099158572725  2.59619243
  107     1 7.460326995918459  27.886927614518108  3.54349542
  108     1 8.58554828227566  28.39339832580692  2.55584494
  109     2 20.19783688077008  1.190081109323584  2.52145699
  110     1 10.784139980677462  1.781531731401216  2.39341447
  111     1 19.382635786862988  1.7383162658675266  2.54729482
  112     2 20.239047572303893  8.676397525102278  2.46025975
  113     1 10.863714668376842  8.324685701253584  2.87307695
  114     1 20.279176418457276  9.671037795815352  2.50169488
  115     2 11.320193203462622  5.0719279895239335  2.52113129
  116     1 11.874250620253802  4.343560437921679  2.18249089
  117     1 11.85895320590393  5.895796419456487  2.50876996
  118     2 13.697143330427366  0.13192388899580496  2.49057303
  119     1 13.317140438516287  9.41540268761496  2.64299908
  120     1 14.685515794502995  0.048171968957760804  2.52273853
  121     2 15.105540618872162  3.901868797482023  2.4795926
  122     1 15.877048908926865  3.310122839297029  2.60635836
  123     1 14.290382112643643  3.3536485026249516  2.45254517
  124     2 15.1468253867489  6.5890949999266075  2.54049623
  125     1 15.956620557357049  6.940780268321518  2.12748206
  126     1 15.186920411043168  5.594471700865013  2.49902662
  127     2 16.413147786895117  0.020144924240962273  2.47837066
  128     1 16.96716406029796  0.7485064641155182  2.81710188
  129     1 16.95195100477524  9.369441835742007  2.49124678
  130     2 18.7891747690367  4.95965249977312  2.50910288
  131     1 18.408964807026308  5.8495930509462655  2.35726893
  132     1 19.777536187050487  5.0434636800622155  2.47704691
  133     2 12.599115925891356  2.4910820812059606  2.59304119
  134     1 12.48041600684463  2.6380528380249855  3.5503314
  135     1 12.994079196083776  1.5577116725195992  2.52697442
  136     2 12.724798754319211  7.566158982065223  2.40424928
  137     1 12.552521699179156  7.724527863475487  1.45694563
  138     1 13.677630274807816  7.218108847257644  2.44470774
  139     2 17.691733961472426  2.6004373359074973  2.40593688
  140     1 17.57305818913708  2.4534140520338257  1.44865564
  141     1 18.086510114261294  3.533917592461347  2.47208523
  142     2 17.817502333428756  7.698538584643043  2.59619243
  143     1 17.64503927337746  7.54036704058842  3.54349542
  144     1 18.770260559734663  8.046837751877236  2.55584494
  145     2 20.19808818362054  11.36336139621993  2.52145699
  146     1 10.784391283527917  11.95481201829756  2.39341447
  147     1 19.38288708971344  11.911596552763873  2.54729482
  148     2 20.23929887515435  18.849677811998625  2.46025975
  149     1 10.863965971227294  18.497965988149932  2.87307695
  150     1 20.279427721307734  19.844318082711695  2.50169488
  151     2 11.320444506313075  15.245208276420279  2.52113129
  152     1 11.874501923104253  14.516840724818024  2.18249089
  153     1 11.859204508754386  16.069076706352835  2.50876996
  154     2 13.697394633277819  10.30520417589215  2.49057303
  155     1 13.317391741366741  19.588682974511308  2.64299908
  156     1 14.68576709735345  10.221452255854105  2.52273853
  157     2 15.105791921722616  14.075149084378367  2.4795926
  158     1 15.877300211777321  13.483403126193375  2.60635836
  159     1 14.2906334154941  13.526928789521296  2.45254517
  160     2 15.147076689599356  16.762375286822955  2.54049623
  161     1 15.956871860207505  17.114060555217865  2.12748206
  162     1 15.187171713893623  15.767751987761358  2.49902662
  163     2 16.413399089745567  10.193425211137308  2.47837066
  164     1 16.967415363148415  10.921786751011863  2.81710188
  165     1 16.952202307625694  19.542722122638352  2.49124678
  166     2 18.78942607188715  15.132932786669466  2.50910288
  167     1 18.409216109876763  16.022873337842608  2.35726893
  168     1 19.777787489900945  15.216743966958559  2.47704691
  169     2 12.59936722874181  12.664362368102305  2.59304119
  170     1 12.480667309695084  12.81133312492133  3.5503314
  171     1 12.994330498934232  11.730991959415945  2.52697442
  172     2 12.725050057169668  17.739439268961565  2.40424928
  173     1 12.552773002029609  17.89780815037183  1.45694563
  174     1 13.677881577658267  17.39138913415399  2.44470774
  175     2 17.691985264322884  12.773717622803842  2.40593688
  176     1 17.573309491987533  12.626694338930172  1.44865564
  177     1 18.08676141711175  13.70719787935769  2.47208523
  178     2 17.817753636279207  17.871818871539386  2.59619243
  179     1 17.645290576227918  17.713647327484765  3.54349542
  180     1 18.770511862585117  18.22011803877358  2.55584494
  181     2 20.198339486470992  21.536641683116276  2.52145699
  182     1 10.78464258637837  22.128092305193906  2.39341447
  183     1 19.383138392563897  22.084876839660218  2.54729482
  184     2 20.239550178004805  29.022958098894968  2.46025975
  185     1 10.864217274077749  28.671246275046276  2.87307695
  186     1 20.27967902415818  30.01759836960804  2.50169488
  187     2 11.320695809163531  25.41848856331662  2.52113129
  188     1 11.87475322595471  24.69012101171437  2.18249089
  189     1 11.859455811604839  26.242356993249178  2.50876996
  190     2 13.697645936128273  20.478484462788494  2.49057303
  191     1 13.317643044217197  29.76196326140765  2.64299908
  192     1 14.686018400203906  20.39473254275045  2.52273853
  193     2 15.106043224573071  24.248429371274714  2.4795926
  194     1 15.877551514627774  23.656683413089716  2.60635836
  195     1 14.290884718344554  23.700209076417647  2.45254517
  196     2 15.147327992449812  26.9356555737193  2.54049623
  197     1 15.95712316305796  27.287340842114205  2.12748206
  198     1 15.187423016744075  25.941032274657704  2.49902662
  199     2 16.413650392596022  20.366705498033653  2.47837066
  200     1 16.96766666599887  21.09506703790821  2.81710188
  201     1 16.952453610476145  29.7160024095347  2.49124678
  202     2 18.789677374737604  25.30621307356581  2.50910288
  203     1 18.409467412727214  26.196153624738955  2.35726893
  204     1 19.7780387927514  25.390024253854904  2.47704691
  205     2 12.599618531592265  22.83764265499865  2.59304119
  206     1 12.480918612545537  22.984613411817676  3.5503314
  207     1 12.994581801784683  21.90427224631229  2.52697442
  208     2 12.72530136002012  27.91271955585791  2.40424928
  209     1 12.553024304880067  28.07108843726818  1.45694563
  210     1 13.678132880508722  27.564669421050336  2.44470774
  211     2 17.692236567173335  22.946997909700187  2.40593688
  212     1 17.573560794837988  22.799974625826515  1.44865564
  213     1 18.087012719962207  23.880478166254036  2.47208523
  214     2 17.81800493912966  28.045099158435736  2.59619243
  215     1 17.64554187907837  27.88692761438111  3.54349542
  216     1 18.770763165435568  28.393398325669924  2.55584494
  217     2 30.383051753929994  1.1900811091868384  2.52145699
  218     1 20.969354853837377  1.7815317312644705  2.39341447
  219     1 29.5678506600229  1.738316265730781  2.54729482
  220     2 30.424262445463807  8.676397524965534  2.46025975
  221     1 21.048929541536754  8.32468570111684  2.87307695
  222     1 30.464391291617183  9.671037795678608  2.50169488
  223     2 21.505408076622533  5.071927989387188  2.52113129
  224     1 22.059465493413718  4.343560437784933  2.18249089
  225     1 22.044168079063844  5.895796419319741  2.50876996
  226     2 23.882358203587277  0.13192388885905953  2.49057303
  227     1 23.5023553116762  9.415402687478217  2.64299908
  228     1 24.870730667662908  0.0481719688210154  2.52273853
  229     2 25.29075549203207  3.9018687973452777  2.4795926
  230     1 26.062263782086777  3.3101228391602833  2.60635836
  231     1 24.47559698580356  3.353648502488206  2.45254517
  232     2 25.332040259908812  6.589094999789863  2.54049623
  233     1 26.14183543051696  6.940780268184772  2.12748206
  234     1 25.372135284203083  5.594471700728267  2.49902662
  235     2 26.598362660055024  0.020144924104216873  2.47837066
  236     1 27.152378933457875  0.7485064639787727  2.81710188
  237     1 27.13716587793515  9.369441835605263  2.49124678
  238     2 28.974389642196606  4.959652499636374  2.50910288
  239     1 28.59417968018622  5.849593050809521  2.35726893
  240     1 29.9627510602104  5.04346367992547  2.47704691
  241     2 22.78433079905127  2.4910820810692154  2.59304119
  242     1 22.665630880004535  2.63805283788824  3.5503314
  243     1 23.17929406924369  1.557711672382854  2.52697442
  244     2 22.910013627479124  7.566158981928478  2.40424928
  245     1 22.73773657233907  7.724527863338741  1.45694563
  246     1 23.86284514796773  7.218108847120899  2.44470774
  247     2 27.876948834632337  2.6004373357707524  2.40593688
  248     1 27.75827306229699  2.45341405189708  1.44865564
  249     1 28.27172498742121  3.5339175923246007  2.47208523
  250     2 28.00271720658867  7.698538584506298  2.59619243
  251     1 27.83025414653737  7.540367040451674  3.54349542
  252     1 28.955475432894577  8.046837751740492  2.55584494
  253     2 30.383303056780452  11.363361396083185  2.52145699
  254     1 20.969606156687824  11.954812018160816  2.39341447
  255     1 29.56810196287335  11.911596552627126  2.54729482
  256     2 30.42451374831426  18.84967781186188  2.46025975
  257     1 21.04918084438721  18.497965988013185  2.87307695
  258     1 30.46464259446764  19.84431808257495  2.50169488
  259     2 21.50565937947299  15.245208276283531  2.52113129
  260     1 22.059716796264166  14.516840724681277  2.18249089
  261     1 22.0444193819143  16.069076706216084  2.50876996
  262     2 23.882609506437735  10.305204175755405  2.49057303
  263     1 23.502606614526652  19.58868297437456  2.64299908
  264     1 24.870981970513363  10.221452255717361  2.52273853
  265     2 25.291006794882527  14.075149084241623  2.4795926
  266     1 26.06251508493723  13.483403126056631  2.60635836
  267     1 24.47584828865401  13.526928789384552  2.45254517
  268     2 25.33229156275927  16.76237528668621  2.54049623
  269     1 26.142086733367417  17.11406055508112  2.12748206
  270     1 25.372386587053533  15.767751987624612  2.49902662
  271     2 26.598613962905482  10.193425211000562  2.47837066
  272     1 27.15263023630833  10.92178675087512  2.81710188
  273     1 27.137417180785608  19.542722122501612  2.49124678
  274     2 28.974640945047064  15.132932786532718  2.50910288
  275     1 28.594430983036677  16.022873337705867  2.35726893
  276     1 29.963002363060863  15.216743966821815  2.47704691
  277     2 22.784582101901723  12.664362367965563  2.59304119
  278     1 22.665882182854993  12.811333124784586  3.5503314
  279     1 23.179545372094143  11.730991959279196  2.52697442
  280     2 22.910264930329582  17.739439268824825  2.40424928
  281     1 22.737987875189525  17.897808150235086  1.45694563
  282     1 23.863096450818176  17.391389134017242  2.44470774
  283     2 27.877200137482795  12.773717622667098  2.40593688
  284     1 27.758524365147444  12.626694338793426  1.44865564
  285     1 28.27197629027166  13.707197879220947  2.47208523
  286     2 28.00296850943913  17.871818871402645  2.59619243
  287     1 27.83050544938783  17.71364732734802  3.54349542
  288     1 28.955726735745035  18.220118038636834  2.55584494
  289     2 30.3835543596309  21.53664168297953  2.52145699
  290     1 20.969857459538282  22.128092305057162  2.39341447
  291     1 29.56835326572381  22.08487683952347  2.54729482
  292     2 30.42476505116472  29.022958098758227  2.46025975
  293     1 21.049432147237663  28.671246274909528  2.87307695
  294     1 30.464893897318095  30.017598369471298  2.50169488
  295     2 21.505910682323442  25.41848856317988  2.52113129
  296     1 22.059968099114624  24.690121011577624  2.18249089
  297     1 22.044670684764753  26.242356993112434  2.50876996
  298     2 23.882860809288186  20.47848446265175  2.49057303
  299     1 23.502857917377103  29.761963261270907  2.64299908
  300     1 24.87123327336381  20.394732542613706  2.52273853
  301     2 25.29125809773298  24.24842937113797  2.4795926
  302     1 26.062766387787686  23.656683412952972  2.60635836
  303     1 24.476099591504465  23.700209076280895  2.45254517
  304     2 25.332542865609724  26.935655573582554  2.54049623
  305     1 26.142338036217872  27.287340841977464  2.12748206
  306     1 25.37263788990399  25.941032274520957  2.49902662
  307     2 26.598865265755933  20.366705497896906  2.47837066
  308     1 27.15288153915878  21.095067037771464  2.81710188
  309     1 27.13766848363606  29.716002409397955  2.49124678
  310     2 28.974892247897518  25.306213073429063  2.50910288
  311     1 28.594682285887124  26.19615362460221  2.35726893
  312     1 29.963253665911314  25.39002425371816  2.47704691
  313     2 22.78483340475218  22.837642654861906  2.59304119
  314     1 22.666133485705448  22.98461341168093  3.5503314
  315     1 23.179796674944598  21.90427224617554  2.52697442
  316     2 22.91051623318003  27.912719555721164  2.40424928
  317     1 22.73823917803998  28.07108843713143  1.45694563
  318     1 23.863347753668634  27.56466942091359  2.44470774
  319     2 27.877451440333246  22.946997909563443  2.40593688
  320     1 27.758775667997902  22.79997462568977  1.44865564
  321     1 28.272227593122118  23.880478166117292  2.47208523
  322     2 28.003219812289576  28.04509915829899  2.59619243
  323     1 27.83075675223828  27.88692761424436  3.54349542
  324     1 28.955978038595482  28.39339832553318  2.55584494
  325     2 40.568266637089906  1.190081109049844  2.52145699
  326     1 31.154569736997285  1.7815317311274759  2.39341447
  327     1 39.75306554318281  1.7383162655937865  2.54729482
  328     2 40.60947732862371  8.676397524828538  2.46025975
  329     1 31.23414442469667  8.324685700979845  2.87307695
  330     1 40.649606174777105  9.671037795541613  2.50169488
  331     2 31.690622959782445  5.071927989250193  2.52113129
  332     1 32.24468037657362  4.343560437647938  2.18249089
  333     1 32.22938296222375  5.895796419182748  2.50876996
  334     2 34.06757308674719  0.13192388872206504  2.49057303
  335     1 33.68757019483612  9.415402687341222  2.64299908
  336     1 35.05594555082282  0.0481719686840209  2.52273853
  337     2 35.47597037519198  3.9018687972082837  2.4795926
  338     1 36.24747866524669  3.3101228390232893  2.60635836
  339     1 34.66081186896347  3.3536485023512115  2.45254517
  340     2 35.51725514306873  6.589094999652867  2.54049623
  341     1 36.32705031367687  6.940780268047778  2.12748206
  342     1 35.55735016736299  5.594471700591273  2.49902662
  343     2 36.78357754321494  0.020144923967222377  2.47837066
  344     1 37.33759381661778  0.7485064638417782  2.81710188
  345     1 37.32238076109507  9.36944183546827  2.49124678
  346     2 39.15960452535652  4.959652499499379  2.50910288
  347     1 38.77939456334613  5.849593050672526  2.35726893
  348     1 40.147965943370316  5.043463679788474  2.47704691
  349     2 32.96954568221118  2.491082080932221  2.59304119
  350     1 32.85084576316446  2.6380528377512453  3.5503314
  351     1 33.3645089524036  1.5577116722458595  2.52697442
  352     2 33.09522851063904  7.566158981791483  2.40424928
  353     1 32.922951455498975  7.724527863201748  1.45694563
  354     1 34.04806003112764  7.218108846983903  2.44470774
  355     2 38.06216371779225  2.6004373356337576  2.40593688
  356     1 37.9434879454569  2.4534140517600855  1.44865564
  357     1 38.45693987058112  3.5339175921876063  2.47208523
  358     2 38.18793208974858  7.698538584369304  2.59619243
  359     1 38.01546902969729  7.540367040314679  3.54349542
  360     1 39.14069031605449  8.046837751603496  2.55584494
  361     2 40.56851793994036  11.363361395946187  2.52145699
  362     1 31.15482103984774  11.954812018023821  2.39341447
  363     1 39.753316846033265  11.911596552490131  2.54729482
  364     2 40.60972863147418  18.849677811724884  2.46025975
  365     1 31.234395727547124  18.49796598787619  2.87307695
  366     1 40.64985747762755  19.844318082437958  2.50169488
  367     2 31.690874262632903  15.245208276146538  2.52113129
  368     1 32.24493167942408  14.516840724544284  2.18249089
  369     1 32.22963426507421  16.069076706079095  2.50876996
  370     2 34.06782438959764  10.305204175618412  2.49057303
  371     1 33.687821497686556  19.588682974237567  2.64299908
  372     1 35.05619685367327  10.221452255580365  2.52273853
  373     2 35.47622167804245  14.075149084104629  2.4795926
  374     1 36.24772996809714  13.483403125919633  2.60635836
  375     1 34.66106317181392  13.526928789247558  2.45254517
  376     2 35.517506445919174  16.76237528654921  2.54049623
  377     1 36.32730161652733  17.114060554944125  2.12748206
  378     1 35.55760147021345  15.767751987487616  2.49902662
  379     2 36.7838288460654  10.193425210863568  2.47837066
  380     1 37.33784511946824  10.921786750738123  2.81710188
  381     1 37.32263206394552  19.542722122364616  2.49124678
  382     2 39.15985582820697  15.132932786395726  2.50910288
  383     1 38.77964586619659  16.02287333756887  2.35726893
  384     1 40.14821724622077  15.21674396668482  2.47704691
  385     2 32.96979698506164  12.664362367828565  2.59304119
  386     1 32.8510970660149  12.81133312464759  3.5503314
  387     1 33.364760255254055  11.730991959142205  2.52697442
  388     2 33.0954798134895  17.739439268687825  2.40424928
  389     1 32.92320275834944  17.897808150098093  1.45694563
  390     1 34.0483113339781  17.391389133880253  2.44470774
  391     2 38.0624150206427  12.773717622530102  2.40593688
  392     1 37.94373924830736  12.626694338656431  1.44865564
  393     1 38.45719117343157  13.707197879083953  2.47208523
  394     2 38.18818339259903  17.871818871265646  2.59619243
  395     1 38.01572033254774  17.713647327211024  3.54349542
  396     1 39.14094161890494  18.220118038499844  2.55584494
  397     2 40.56876924279082  21.536641682842532  2.52145699
  398     1 31.155072342698197  22.128092304920166  2.39341447
  399     1 39.753568148883716  22.084876839386475  2.54729482
  400     2 40.60997993432463  29.022958098621228  2.46025975
  401     1 31.234647030397575  28.671246274772535  2.87307695
  402     1 40.650108780478014  30.0175983693343  2.50169488
  403     2 31.69112556548335  25.418488563042885  2.52113129
  404     1 32.245182982274535  24.690121011440628  2.18249089
  405     1 32.22988556792466  26.242356992975438  2.50876996
  406     2 34.068075692448105  20.478484462514754  2.49057303
  407     1 33.688072800537014  29.761963261133907  2.64299908
  408     1 35.056448156523736  20.394732542476714  2.52273853
  409     2 35.47647298089289  24.24842937100097  2.4795926
  410     1 36.247981270947605  23.65668341281598  2.60635836
  411     1 34.66131447466438  23.700209076143903  2.45254517
  412     2 35.51775774876963  26.93565557344556  2.54049623
  413     1 36.32755291937779  27.287340841840468  2.12748206
  414     1 35.5578527730639  25.941032274383964  2.49902662
  415     2 36.78408014891585  20.366705497759913  2.47837066
  416     1 37.338096422318685  21.095067037634468  2.81710188
  417     1 37.32288336679598  29.716002409260962  2.49124678
  418     2 39.16010713105743  25.30621307329207  2.50910288
  419     1 38.77989716904704  26.196153624465218  2.35726893
  420     1 40.14846854907122  25.390024253581164  2.47704691
  421     2 32.97004828791209  22.83764265472491  2.59304119
  422     1 32.85134836886537  22.984613411543936  3.5503314
  423     1 33.36501155810451  21.904272246038552  2.52697442
  424     2 33.09573111633994  27.91271955558417  2.40424928
  425     1 32.92345406119989  28.071088436994433  1.45694563
  426     1 34.04856263682855  27.564669420776596  2.44470774
  427     2 38.062666323493154  22.946997909426447  2.40593688
  428     1 37.94399055115781  22.799974625552775  1.44865564
  429     1 38.457442476282026  23.880478165980296  2.47208523
  430     2 38.188434695449494  28.045099158161992  2.59619243
  431     1 38.015971635398195  27.88692761410737  3.54349542
  432     1 39.1411929217554  28.393398325396184  2.55584494

